LAMMPS (23 Jun 2022 - Update 1)
units        metal
dimension	3
boundary	p p p
atom_style	atomic
neighbor      2.0 bin
neigh_modify  delay 10 check yes



read_data     5.lmp
Reading data file ...
  orthogonal box = (0 0 0) to (1203.9264 199.32649 201.4765)
  8 by 1 by 1 MPI processor grid
  reading atoms ...
  2704396 atoms
  reading velocities ...
  2704396 velocities
  read_data CPU = 3.558 seconds

pair_style	eam/alloy
pair_coeff   * * AlVTi.eam.alloy Ti Al V
Reading eam/alloy potential file AlVTi.eam.alloy with DATE: 2023-02-26


timestep	       0.001
thermo 100
thermo_style custom step lx ly lz press pxx pyy pzz density temp ke pe  etotal enthalpy ebond eangle emol vol density
velocity       all create 300 12345 mom yes rot no
min_style cg
minimize 1.0e-25 1.0e-25 5000 50000
WARNING: Using 'neigh_modify every 1 delay 0 check yes' setting during minimization (../min.cpp:187)
Neighbor list info ...
  update every 1 steps, delay 0 steps, check yes
  max neighbors/atom: 2000, page size: 100000
  master list distance cutoff = 8.5603372
  ghost atom cutoff = 8.5603372
  binsize = 4.2801686, bins = 282 47 48
  1 neighbor lists, perpetual/occasional/extra = 1 0 0
  (1) pair eam/alloy, perpetual
      attributes: half, newton on
      pair build: half/bin/atomonly/newton
      stencil: half/bin/3d
      bin: standard
Per MPI rank memory allocation (min/avg/max) = 205.3 | 210.4 | 214.5 Mbytes
   Step           Lx             Ly             Lz           Press           Pxx            Pyy            Pzz          Density          Temp          KinEng         PotEng         TotEng        Enthalpy        E_bond        E_angle         E_mol          Volume        Density    
         0   1203.9264      199.32649      201.4765       22781.022      9498.5622      14258.625      44585.879      4.3420776      300            104871.15     -12480018      -12375147      -11687679       0              0              0              48349206       4.3420776    
       100   1203.9264      199.32649      201.4765      -1537.182      -8882.5976     -8367.8209      12638.872      4.3420776      300            104871.15     -12960570      -12855698      -12902086       0              0              0              48349206       4.3420776    
       200   1203.9264      199.32649      201.4765      -1704.191      -9040.23       -8605.7388      12533.396      4.3420776      300            104871.15     -12962732      -12857861      -12909289       0              0              0              48349206       4.3420776    
       300   1203.9264      199.32649      201.4765      -1767.006      -9077.8526     -8738.1577      12514.992      4.3420776      300            104871.15     -12963857      -12858986      -12912309       0              0              0              48349206       4.3420776    
       400   1203.9264      199.32649      201.4765      -1795.3708     -9102.7468     -8836.2326      12552.867      4.3420776      300            104871.15     -12964567      -12859695      -12913875       0              0              0              48349206       4.3420776    
       500   1203.9264      199.32649      201.4765      -1808.1815     -9121.4996     -8912.6085      12609.564      4.3420776      300            104871.15     -12965078      -12860207      -12914773       0              0              0              48349206       4.3420776    
       600   1203.9264      199.32649      201.4765      -1810.5479     -9137.7799     -8988.6398      12694.776      4.3420776      300            104871.15     -12965585      -12860714      -12915352       0              0              0              48349206       4.3420776    
       700   1203.9264      199.32649      201.4765      -1808.2436     -9152.1584     -9033.2048      12760.632      4.3420776      300            104871.15     -12965927      -12861056      -12915623       0              0              0              48349206       4.3420776    
       800   1203.9264      199.32649      201.4765      -1804.295      -9164.9749     -9068.4124      12820.502      4.3420776      300            104871.15     -12966197      -12861326      -12915775       0              0              0              48349206       4.3420776    
       900   1203.9264      199.32649      201.4765      -1801.0044     -9176.5333     -9091.6837      12865.204      4.3420776      300            104871.15     -12966392      -12861521      -12915870       0              0              0              48349206       4.3420776    
      1000   1203.9264      199.32649      201.4765      -1799.3062     -9190.2202     -9103.2984      12895.6        4.3420776      300            104871.15     -12966529      -12861657      -12915956       0              0              0              48349206       4.3420776    
      1100   1203.9264      199.32649      201.4765      -1796.4522     -9204.0391     -9108.5563      12923.239      4.3420776      300            104871.15     -12966636      -12861765      -12915977       0              0              0              48349206       4.3420776    
      1200   1203.9264      199.32649      201.4765      -1792.7084     -9220.6347     -9110.6755      12953.185      4.3420776      300            104871.15     -12966737      -12861866      -12915965       0              0              0              48349206       4.3420776    
      1300   1203.9264      199.32649      201.4765      -1789.5715     -9232.4158     -9110.9114      12974.613      4.3420776      300            104871.15     -12966805      -12861934      -12915939       0              0              0              48349206       4.3420776    
      1400   1203.9264      199.32649      201.4765      -1785.5526     -9242.6742     -9107.0939      12993.11       4.3420776      300            104871.15     -12966854      -12861983      -12915866       0              0              0              48349206       4.3420776    
      1500   1203.9264      199.32649      201.4765      -1781.4471     -9255.5136     -9099.7332      13010.906      4.3420776      300            104871.15     -12966899      -12862028      -12915787       0              0              0              48349206       4.3420776    
      1600   1203.9264      199.32649      201.4765      -1778.9714     -9264.5539     -9095.2542      13022.894      4.3420776      300            104871.15     -12966925      -12862054      -12915738       0              0              0              48349206       4.3420776    
      1700   1203.9264      199.32649      201.4765      -1776.7795     -9272.1474     -9090.6776      13032.486      4.3420776      300            104871.15     -12966948      -12862077      -12915695       0              0              0              48349206       4.3420776    
      1800   1203.9264      199.32649      201.4765      -1775.7912     -9276.3557     -9086.5494      13035.531      4.3420776      300            104871.15     -12966962      -12862091      -12915679       0              0              0              48349206       4.3420776    
      1900   1203.9264      199.32649      201.4765      -1775.8081     -9280.74       -9084.7963      13038.112      4.3420776      300            104871.15     -12966972      -12862101      -12915690       0              0              0              48349206       4.3420776    
      2000   1203.9264      199.32649      201.4765      -1775.8953     -9285.731      -9081.8091      13039.854      4.3420776      300            104871.15     -12966981      -12862110      -12915702       0              0              0              48349206       4.3420776    
      2100   1203.9264      199.32649      201.4765      -1776.1882     -9288.7507     -9080.8587      13041.045      4.3420776      300            104871.15     -12966990      -12862119      -12915719       0              0              0              48349206       4.3420776    
      2200   1203.9264      199.32649      201.4765      -1776.4734     -9288.7489     -9080.8442      13040.173      4.3420776      300            104871.15     -12966997      -12862126      -12915735       0              0              0              48349206       4.3420776    
      2300   1203.9264      199.32649      201.4765      -1776.8434     -9289.1971     -9081.1562      13039.823      4.3420776      300            104871.15     -12967001      -12862130      -12915750       0              0              0              48349206       4.3420776    
      2400   1203.9264      199.32649      201.4765      -1777.2446     -9290.4691     -9080.9796      13039.715      4.3420776      300            104871.15     -12967008      -12862137      -12915769       0              0              0              48349206       4.3420776    
      2500   1203.9264      199.32649      201.4765      -1777.7149     -9291.1911     -9081.5318      13039.578      4.3420776      300            104871.15     -12967012      -12862141      -12915788       0              0              0              48349206       4.3420776    
      2600   1203.9264      199.32649      201.4765      -1777.3936     -9291.2665     -9080.8375      13039.923      4.3420776      300            104871.15     -12967014      -12862143      -12915780       0              0              0              48349206       4.3420776    
      2700   1203.9264      199.32649      201.4765      -1777.707      -9291.4471     -9080.9648      13039.291      4.3420776      300            104871.15     -12967018      -12862147      -12915793       0              0              0              48349206       4.3420776    
      2800   1203.9264      199.32649      201.4765      -1777.7103     -9291.0407     -9080.9966      13038.906      4.3420776      300            104871.15     -12967020      -12862149      -12915796       0              0              0              48349206       4.3420776    
      2900   1203.9264      199.32649      201.4765      -1777.6531     -9291.2629     -9080.8979      13039.201      4.3420776      300            104871.15     -12967024      -12862152      -12915797       0              0              0              48349206       4.3420776    
      3000   1203.9264      199.32649      201.4765      -1777.7536     -9291.8227     -9081.81        13040.372      4.3420776      300            104871.15     -12967030      -12862159      -12915807       0              0              0              48349206       4.3420776    
      3100   1203.9264      199.32649      201.4765      -1777.8521     -9292.4254     -9081.5837      13040.453      4.3420776      300            104871.15     -12967034      -12862163      -12915814       0              0              0              48349206       4.3420776    
      3200   1203.9264      199.32649      201.4765      -1778.1952     -9293.1491     -9081.873       13040.436      4.3420776      300            104871.15     -12967039      -12862168      -12915828       0              0              0              48349206       4.3420776    
      3300   1203.9264      199.32649      201.4765      -1778.5461     -9293.3004     -9082.3708      13040.033      4.3420776      300            104871.15     -12967041      -12862170      -12915842       0              0              0              48349206       4.3420776    
      3400   1203.9264      199.32649      201.4765      -1778.6855     -9292.8524     -9083.1799      13039.976      4.3420776      300            104871.15     -12967044      -12862173      -12915849       0              0              0              48349206       4.3420776    
      3500   1203.9264      199.32649      201.4765      -1778.7531     -9292.9773     -9083.6562      13040.374      4.3420776      300            104871.15     -12967045      -12862174      -12915851       0              0              0              48349206       4.3420776    
      3600   1203.9264      199.32649      201.4765      -1778.7156     -9293.2004     -9083.7718      13040.826      4.3420776      300            104871.15     -12967046      -12862175      -12915851       0              0              0              48349206       4.3420776    
      3700   1203.9264      199.32649      201.4765      -1779.0397     -9293.6        -9084.4405      13040.921      4.3420776      300            104871.15     -12967049      -12862178      -12915865       0              0              0              48349206       4.3420776    
      3800   1203.9264      199.32649      201.4765      -1779.3006     -9293.3113     -9085.1939      13040.604      4.3420776      300            104871.15     -12967054      -12862183      -12915877       0              0              0              48349206       4.3420776    
      3900   1203.9264      199.32649      201.4765      -1779.4481     -9294.2129     -9085.2628      13041.132      4.3420776      300            104871.15     -12967056      -12862185      -12915884       0              0              0              48349206       4.3420776    
      4000   1203.9264      199.32649      201.4765      -1779.3414     -9293.8807     -9085.4246      13041.281      4.3420776      300            104871.15     -12967057      -12862186      -12915882       0              0              0              48349206       4.3420776    
      4015   1203.9264      199.32649      201.4765      -1779.3447     -9293.8513     -9085.4587      13041.276      4.3420776      300            104871.15     -12967057      -12862186      -12915882       0              0              0              48349206       4.3420776    
Loop time of 6204.03 on 8 procs for 4015 steps with 2704396 atoms

95.2% CPU use with 8 MPI tasks x no OpenMP threads

Minimization stats:
  Stopping criterion = linesearch alpha is zero
  Energy initial, next-to-last, final = 
     -12480017.7631587  -12967057.1517764  -12967057.1517764
  Force two-norm initial, final = 22118.936 0.042585877
  Force max component initial, final = 705.92715 0.0045872139
  Final line search alpha, max atom move = 3.8146973e-06 1.7498832e-08
  Iterations, force evaluations = 4015 6397

MPI task timing breakdown:
Section |  min time  |  avg time  |  max time  |%varavg| %total
---------------------------------------------------------------
Pair    | 4890.8     | 5078.3     | 5211.1     | 158.5 | 81.85
Neigh   | 124.7      | 136.27     | 143.17     |  59.5 |  2.20
Comm    | 338.69     | 481.51     | 686.59     | 572.7 |  7.76
Output  | 0.68241    | 0.71255    | 0.7393     |   1.9 |  0.01
Modify  | 0          | 0          | 0          |   0.0 |  0.00
Other   |            | 507.3      |            |       |  8.18

Nlocal:         338050 ave      339160 max      337016 min
Histogram: 2 1 0 0 1 1 0 1 1 1
Nghost:         106261 ave      107294 max      102512 min
Histogram: 1 0 0 0 0 0 0 0 4 3
Neighs:    2.47722e+07 ave 2.48746e+07 max 2.46687e+07 min
Histogram: 1 0 2 0 0 1 3 0 0 1

Total # of neighbors = 1.9817742e+08
Ave neighs/atom = 73.279735
Neighbor list builds = 208
Dangerous builds = 0
write_data      6.lmp
System init for write_data ...

reset_timestep	0
velocity       all create 300 12345 mom yes rot no
fix       1 all npt temp 300.0 300.0 0.001 x 0 0 0.1 y 0 0 0.1 z 0 0 0.1
thermo          100
thermo_style    custom step lx ly lz press pxx pyy pzz  density temp ke pe  etotal enthalpy ebond eangle emol vol density

# Run for at least 10 picosecond (assuming 1 fs timestep)
run             20000
Per MPI rank memory allocation (min/avg/max) = 182 | 182.6 | 183.5 Mbytes
   Step           Lx             Ly             Lz           Press           Pxx            Pyy            Pzz          Density          Temp          KinEng         PotEng         TotEng        Enthalpy        E_bond        E_angle         E_mol          Volume        Density    
         0   1203.9264      199.32649      201.4765      -1779.3447     -9293.8513     -9085.4587      13041.276      4.3420776      300            104871.15     -12967057      -12862186      -12915882       0              0              0              48349206       4.3420776    
       100   1199.5749      198.64166      205.61584     -173.36096     -238.18189     -240.09928     -41.80172       4.2848208      301.3963       105359.25     -12797773      -12692414      -12697715       0              0              0              48995283       4.2848208    
       200   1195.4703      197.97366      205.29285      25.09476       44.013224      41.949022     -10.677965      4.3208271      299.97172      104861.26     -12882920      -12778059      -12777298       0              0              0              48586995       4.3208271    
       300   1196.26        198.07824      205.38396     -4.2642652      6.828839       4.4270235     -24.048658      4.3137808      300.01542      104876.54     -12865985      -12761108      -12761238       0              0              0              48666359       4.3137808    
       400   1196.2444      198.08345      205.37535      0.31569801    -10.234259     -8.2212735      19.402626      4.3139042      299.99235      104868.47     -12866403      -12761535      -12761525       0              0              0              48664967       4.3139042    
       500   1196.1244      198.07235      205.40107     -1.7186312     -1.7172822     -3.2996403     -0.13897107     4.3140385      299.92831      104846.09     -12867091      -12762245      -12762297       0              0              0              48663451       4.3140385    
       600   1196.1244      198.06551      205.41803      0.75732201     1.0648916     -1.0419171      2.2489915      4.3138313      300.08724      104901.64     -12866819      -12761918      -12761895       0              0              0              48665789       4.3138313    
       700   1196.0927      198.05843      205.42826     -0.82887717    -0.99764226    -0.15201567    -1.3369736      4.3138852      299.87694      104828.13     -12867152      -12762324      -12762349       0              0              0              48665182       4.3138852    
       800   1196.0616      198.05911      205.43756      0.17366602     0.29518266     0.55815547    -0.33234007     4.3137872      300.14252      104920.97     -12866969      -12762048      -12762043       0              0              0              48666287       4.3137872    
       900   1196.0742      198.05633      205.44463     -3.3637836     -5.1930064     -2.1473766     -2.7509679      4.3136538      300.04428      104886.62     -12866852      -12761966      -12762068       0              0              0              48667791       4.3136538    
      1000   1196.0164      198.04033      205.44485      128.06758      136.48182      138.21341      109.5075       4.3142061      299.99822      104870.53     -12867041      -12762170      -12758281       0              0              0              48661562       4.3142061    
      1100   1196.0309      198.0468       205.45744      25.410729      34.96808       24.464896      16.79921       4.3137483      300.13257      104917.49     -12867006      -12762089      -12761317       0              0              0              48666725       4.3137483    
      1200   1196.0652      198.0475       205.45758      0.66544756     0.22491137     2.0127889     -0.24135754     4.3136066      300.14033      104920.2      -12867028      -12762108      -12762088       0              0              0              48668324       4.3136066    
      1300   1196.0338      198.05239      205.45967     -4.8508665     -4.2953938     -5.2875385     -4.9696674      4.3135696      299.77499      104792.49     -12867069      -12762276      -12762424       0              0              0              48668741       4.3135696    
      1400   1196.0786      198.04412      205.46335     -7.0851629     -6.621462      -7.9583244     -6.6757023      4.3135109      300.12707      104915.57     -12867052      -12762136      -12762351       0              0              0              48669404       4.3135109    
      1500   1196.1088      198.04013      205.46941     -27.992629     -37.686825     -32.460507     -13.830554      4.3133616      300.1759       104932.64     -12867015      -12762083      -12762933       0              0              0              48671089       4.3133616    
      1600   1196.0317      198.03888      205.46358      59.261085      43.209109      51.324563      83.249584      4.3137892      300.115        104911.35     -12867200      -12762289      -12760489       0              0              0              48666265       4.3137892    
      1700   1196.0801      198.03165      205.47443      7.7626303      7.6835482      5.6762841      9.9280586      4.3135444      299.95218      104854.43     -12867067      -12762213      -12761977       0              0              0              48669026       4.3135444    
      1800   1196.1194      198.02315      205.47642     -0.18729903    -0.040070094   -0.14172078    -0.38010621     4.3135461      300.09557      104904.55     -12867221      -12762317      -12762322       0              0              0              48669007       4.3135461    
      1900   1196.0691      198.03176      205.4832      -9.3713146     -7.3461298     -8.423149      -12.344665      4.3133974      300.08745      104901.72     -12867078      -12762176      -12762461       0              0              0              48670684       4.3133974    
      2000   1196.0912      198.02857      205.49108     -66.278806     -63.2611       -50.65829      -84.917029      4.3132219      300.01077      104874.91     -12867213      -12762338      -12764352       0              0              0              48672665       4.3132219    
      2100   1196.0697      198.0257       205.48395      17.514248      27.848527      12.864672      11.829547      4.3135117      300.16411      104928.52     -12867095      -12762166      -12761634       0              0              0              48669395       4.3135117    
      2200   1196.004       198.03467      205.48433      8.6057249      9.0978431      6.6755984      10.043733      4.3135451      299.65605      104750.91     -12867242      -12762491      -12762229       0              0              0              48669018       4.3135451    
      2300   1195.9737      198.04378      205.48033      7.2724224      6.2083268      6.3758956      9.2330447      4.3135399      300.08722      104901.64     -12867280      -12762379      -12762158       0              0              0              48669077       4.3135399    
      2400   1196.0268      198.04072      205.48169     -10.618495     -12.736869     -10.415822     -8.7027929      4.3133866      299.99682      104870.04     -12867127      -12762257      -12762579       0              0              0              48670807       4.3133866    
      2500   1196.0842      198.04434      205.49077     -150.31433     -148.68607     -144.80115     -157.45577      4.3129102      299.88943      104832.49     -12867259      -12762427      -12766994       0              0              0              48676182       4.3129102    
      2600   1195.9735      198.05036      205.47649     -9.6472041     -3.7324879     -10.423079     -14.786045      4.3134782      300.05051      104888.8      -12867275      -12762386      -12762679       0              0              0              48669773       4.3134782    
      2700   1195.9512      198.05486      205.471        12.268901      12.820985      12.028266      11.957452      4.3135755      299.95693      104856.09     -12867256      -12762400      -12762028       0              0              0              48668675       4.3135755    
      2800   1195.9364      198.05572      205.47416      11.513105      12.190505      11.828469      10.520342      4.3135442      300.02528      104879.98     -12867199      -12762319      -12761969       0              0              0              48669028       4.3135442    
      2900   1195.9626      198.05798      205.4734      -18.101359     -18.788038     -19.324629     -16.191409      4.3134163      299.88212      104829.94     -12867291      -12762461      -12763011       0              0              0              48670472       4.3134163    
      3000   1195.9667      198.06992      205.47921     -120.00124     -120.63102     -129.71708     -109.65563      4.3130195      299.84592      104817.28     -12867314      -12762497      -12766142       0              0              0              48674949       4.3130195    
      3100   1195.9343      198.06038      205.47381     -10.367411     -12.552102     -11.709301     -6.8408285      4.3134575      299.96493      104858.89     -12867252      -12762394      -12762708       0              0              0              48670006       4.3134575    
      3200   1195.9128      198.06062      205.47377      5.5709044      4.3942256      6.0226566      6.2958309      4.3135309      299.88098      104829.54     -12867320      -12762490      -12762321       0              0              0              48669179       4.3135309    
      3300   1195.8253      198.07119      205.47276      28.00119       29.55943       29.535165      24.908974      4.3136372      300.0875       104901.73     -12867290      -12762388      -12761538       0              0              0              48667979       4.3136372    
      3400   1195.8099      198.06566      205.4795       33.932167      58.780695      42.010291      1.0055141      4.3136715      300.03803      104884.44     -12867318      -12762434      -12761403       0              0              0              48667592       4.3136715    
      3500   1195.9377      198.06278      205.47526     -32.543403     -28.184368     -28.126756     -41.319084      4.3133627      299.97652      104862.94     -12867325      -12762462      -12763450       0              0              0              48671076       4.3133627    
      3600   1195.8772      198.06681      205.47751     -10.33757      -10.164226     -9.8638937     -10.984591      4.3134458      299.97259      104861.56     -12867235      -12762374      -12762688       0              0              0              48670139       4.3134458    
      3700   1195.7911      198.07751      205.47546      4.9004319      5.0801832      2.0312079      7.5899047      4.3135663      299.91181      104840.32     -12867435      -12762594      -12762446       0              0              0              48668779       4.3135663    
      3800   1195.7938      198.07196      205.46631      78.403545      68.931031      65.36853       100.91107      4.3138698      299.88489      104830.91     -12867441      -12762610      -12760229       0              0              0              48665355       4.3138698    
      3900   1195.8897      198.057        205.47295      46.509223      35.234782      41.106141      63.186748      4.3137103      300.08346      104900.32     -12867371      -12762470      -12761057       0              0              0              48667154       4.3137103    
      4000   1195.8368      198.06894      205.48092     -12.232942     -12.458797     -11.065229     -13.1748        4.3134734      300.18709      104936.55     -12867426      -12762489      -12762861       0              0              0              48669827       4.3134734    
      4100   1195.7772      198.08026      205.48205     -10.089263     -6.7081803     -9.665993      -13.893615      4.3134185      300.1128       104910.58     -12867356      -12762445      -12762752       0              0              0              48670447       4.3134185    
      4200   1195.8444      198.06289      205.48428     -1.8073817      0.95712356     3.9145327     -10.293801      4.3135073      299.9321       104847.41     -12867362      -12762514      -12762569       0              0              0              48669444       4.3135073    
      4300   1195.8904      198.03351      205.47752      145.09698      140.33223      160.92962      134.02908      4.3141234      299.84871      104818.26     -12867468      -12762650      -12758243       0              0              0              48662494       4.3141234    
      4400   1195.8832      198.05134      205.48579      22.837239      22.868589      17.625822      28.017308      4.3135873      300.01428      104876.14     -12867457      -12762581      -12761887       0              0              0              48668542       4.3135873    
      4500   1195.8631      198.05857      205.48912     -4.8442346     -6.2133678     -6.2866554     -2.0326805      4.3134322      299.98073      104864.41     -12867396      -12762532      -12762679       0              0              0              48670292       4.3134322    
      4600   1195.9163      198.04918      205.49031     -15.007091     -15.467911     -17.028356     -12.525005      4.31342        299.99214      104868.4      -12867441      -12762573      -12763029       0              0              0              48670430       4.31342      
      4700   1195.9382      198.04642      205.49409     -40.114013     -44.540123     -39.366261     -36.435656      4.3133216      299.94038      104850.31     -12867513      -12762663      -12763881       0              0              0              48671540       4.3133216    
      4800   1195.849       198.04412      205.49279      56.577124      62.503707      60.469894      46.757772      4.3137208      300.08499      104900.86     -12867528      -12762627      -12760909       0              0              0              48667036       4.3137208    
      4900   1195.9098      198.04072      205.49527      16.261477      18.446138      17.972983      12.36531       4.3135237      299.93094      104847.01     -12867503      -12762656      -12762162       0              0              0              48669260       4.3135237    
      5000   1195.946       198.03669      205.4934       2.7006657      4.4131437      3.074864       0.61398954     4.3135199      299.83036      104811.85     -12867551      -12762739      -12762657       0              0              0              48669302       4.3135199    
      5100   1195.9133      198.0408       205.49672     -18.450992     -17.562214     -17.86514      -19.925624      4.3134787      299.77335      104791.92     -12867616      -12762824      -12763385       0              0              0              48669768       4.3134787    
      5200   1196.0392      198.05046      205.49407     -132.64612     -149.49389     -149.96954     -98.474927      4.31287        300.17686      104932.97     -12867488      -12762555      -12766585       0              0              0              48676637       4.31287      
      5300   1196.0115      198.03236      205.48716      0.78737621    -5.4162436     -8.1967294      15.975102      4.313509       299.96102      104857.52     -12867600      -12762743      -12762719       0              0              0              48669425       4.313509     
      5400   1196.0027      198.02819      205.49127      12.566035      11.350607      10.310304      16.037195      4.3135452      300.20524      104942.89     -12867550      -12762607      -12762225       0              0              0              48669017       4.3135452    
      5500   1195.985       198.02731      205.4949       8.0605223      8.2665917      9.2498253      6.6651498      4.3135522      300.16307      104928.15     -12867603      -12762675      -12762430       0              0              0              48668938       4.3135522    
      5600   1195.9994      198.02507      205.49577     -2.4515814      6.772812       9.1748472     -23.302403      4.3135307      300.06781      104894.85     -12867617      -12762722      -12762797       0              0              0              48669180       4.3135307    
      5700   1196.0333      198.02953      205.50916     -105.18239     -62.264036     -86.089745     -167.19338      4.3130304      300.14575      104922.1      -12867494      -12762572      -12765768       0              0              0              48674826       4.3130304    
      5800   1196.0297      198.03157      205.48778     -11.58951      -10.339836     -9.0975401     -15.331153      4.3134478      299.92592      104845.25     -12867583      -12762737      -12763089       0              0              0              48670116       4.3134478    
      5900   1195.9954      198.03381      205.48673      0.91825202    -1.62247        1.9524427      2.4247833      4.3135448      299.77133      104791.21     -12867600      -12762809      -12762781       0              0              0              48669022       4.3135448    
      6000   1195.9858      198.03807      205.48007      23.541855      18.733718      17.408116      34.483731      4.3136261      299.949        104853.32     -12867591      -12762738      -12762023       0              0              0              48668104       4.3136261    
      6100   1195.9917      198.04452      205.46452      41.35561       30.253621      7.3454041      86.467805      4.3137911      300.11203      104910.31     -12867805      -12762895      -12761639       0              0              0              48666243       4.3137911    
      6200   1196.0204      198.04143      205.48244     -34.56789      -35.353794     -34.496317     -33.85356       4.3133788      300.00444      104872.7      -12867541      -12762668      -12763718       0              0              0              48670895       4.3133788    
      6300   1195.9824      198.04292      205.47843     -13.511651     -12.905648     -9.606467      -18.022838      4.3135673      300.03854      104884.62     -12867748      -12762864      -12763274       0              0              0              48668768       4.3135673    
      6400   1195.9749      198.04279      205.48122     -3.8604053     -0.81069999    -0.27063208    -10.499884      4.3135389      300.03619      104883.8      -12867639      -12762756      -12762873       0              0              0              48669088       4.3135389    
      6500   1195.9495      198.03675      205.47544      59.537429      75.440805      55.206612      47.96487       4.3138833      300.14469      104921.73     -12867676      -12762755      -12760946       0              0              0              48665203       4.3138833    
      6600   1195.972       198.03888      205.46674      77.850096      67.9616        74.753779      90.834908      4.3139382      299.90015      104836.24     -12867686      -12762850      -12760485       0              0              0              48664584       4.3139382    
      6700   1195.9739      198.04664      205.47429     -6.220518      -12.423636     -6.0275276     -0.21039015     4.3136039      299.86621      104824.38     -12867735      -12762911      -12763100       0              0              0              48668355       4.3136039    
      6800   1195.9639      198.0525       205.47243     -12.486869     -14.895916     -14.93883      -7.6258597      4.3135515      300.03515      104883.43     -12867711      -12762827      -12763207       0              0              0              48668946       4.3135515    
      6900   1195.9733      198.0518       205.47233     -16.690534     -11.732441     -24.735354     -13.603808      4.3135351      300.09341      104903.8      -12867720      -12762816      -12763323       0              0              0              48669131       4.3135351    
      7000   1195.962       198.0362       205.47019      86.818742      94.398012      103.77941      62.27881       4.31396        300.15149      104924.1      -12867691      -12762766      -12760129       0              0              0              48664338       4.31396      
      7100   1195.9106      198.05097      205.47354      25.801711      27.893127      34.622828      14.889177      4.3137536      300.13446      104918.15     -12867755      -12762837      -12762053       0              0              0              48666666       4.3137536    
      7200   1195.9438      198.05422      205.47142      1.0994119      3.1357603      2.9771062     -2.8146307      4.3136076      299.96161      104857.73     -12867699      -12762841      -12762808       0              0              0              48668313       4.3136076    
      7300   1195.9383      198.06112      205.46988     -25.19134      -21.085145     -30.453182     -24.035694      4.3135094      300.00417      104872.61     -12867746      -12762873      -12763638       0              0              0              48669421       4.3135094    
      7400   1196.0191      198.06712      205.46786     -100.39531     -129.04039     -112.69862     -59.446934      4.3131299      299.95426      104855.16     -12867580      -12762725      -12765775       0              0              0              48673703       4.3131299    
      7500   1195.9831      198.05143      205.46592      9.6202696     -5.7899332      6.9752436      27.675499      4.3136421      299.93876      104849.74     -12867808      -12762958      -12762666       0              0              0              48667924       4.3136421    
      7600   1195.9405      198.04941      205.47198      12.709951      12.428461      10.141536      15.559856      4.3137126      299.89831      104835.6      -12867836      -12763001      -12762615       0              0              0              48667128       4.3137126    
      7700   1195.9391      198.05037      205.47612      10.97977       16.816711      9.1199418      7.0026562      4.3136096      299.94129      104850.62     -12867650      -12762799      -12762466       0              0              0              48668291       4.3136096    
      7800   1195.9606      198.04028      205.49187     -50.649573     -35.110213     -25.37535      -91.463156      4.313421       299.94974      104853.58     -12867807      -12762954      -12764492       0              0              0              48670418       4.313421     
      7900   1196.0117      198.03635      205.49044     -67.200524     -64.745616     -45.719714     -91.136243      4.3133528      299.76972      104790.65     -12867818      -12763028      -12765069       0              0              0              48671188       4.3133528    
      8000   1196.0165      198.03655      205.47868     -6.2540183     -5.2893964     -7.9646511     -5.5080074      4.3135778      299.86005      104822.22     -12867785      -12762963      -12763153       0              0              0              48668649       4.3135778    
      8100   1195.971       198.03466      205.4836       14.81392       14.959557      8.4640113      21.018191      4.3136798      300.01474      104876.3      -12867812      -12762936      -12762486       0              0              0              48667499       4.3136798    
      8200   1196.0074      198.02818      205.47998      42.846346      24.852049      33.626856      70.060132      4.3137656      299.97567      104862.64     -12867817      -12762955      -12761653       0              0              0              48666531       4.3137656    
      8300   1196.1103      198.01647      205.48683     -26.9203       -56.640985     -14.827915     -9.2919983      4.3135058      299.98776      104866.87     -12867873      -12763006      -12763824       0              0              0              48669462       4.3135058    
      8400   1196.0393      198.02659      205.49017     -21.378695     -16.714495     -22.042236     -25.379355      4.3134713      300.07474      104897.27     -12867747      -12762849      -12763499       0              0              0              48669851       4.3134713    
      8500   1196.0089      198.02474      205.49417     -12.420116     -4.7586727     -12.640162     -19.861515      4.3135373      299.98341      104865.35     -12867826      -12762960      -12763338       0              0              0              48669106       4.3135373    
      8600   1196.0516      198.01414      205.4915       4.3976541      5.6098353      16.738808     -9.155681       4.3136705      299.72416      104774.72     -12867894      -12763119      -12762985       0              0              0              48667604       4.3136705    
      8700   1196.0802      198.00161      205.48166      109.14496      78.864937      137.03603      111.5339       4.3140466      299.8161       104806.86     -12867809      -12763002      -12759687       0              0              0              48663361       4.3140466    
      8800   1196.0515      198.01782      205.48759      18.506442      18.012919      6.8315266      30.674882      4.3136727      300.22527      104949.89     -12867873      -12762923      -12762361       0              0              0              48667578       4.3136727    
      8900   1196.0766      198.01478      205.49236     -9.3282122     -9.0506564     -16.528231     -2.4057494      4.313548       299.77309      104791.83     -12867821      -12763029      -12763312       0              0              0              48668985       4.313548     
      9000   1196.0785      198.0167       205.49197     -22.321211     -28.267803     -21.400043     -17.295788      4.3135077      299.89169      104833.28     -12867864      -12763031      -12763709       0              0              0              48669440       4.3135077    
      9100   1196.1186      198.00245      205.49783     -10.670069     -29.896393      28.720118     -30.833931      4.3135506      299.89392      104834.07     -12867874      -12763039      -12763364       0              0              0              48668956       4.3135506    
      9200   1196.0616      198.00458      205.49703      33.913837      52.274377      34.364985      15.102148      4.3137263      299.96856      104860.16     -12867885      -12763025      -12761995       0              0              0              48666974       4.3137263    
      9300   1196.1275      197.99961      205.49502      11.078783      17.348135      10.550767      5.3374486      4.3136391      300.04626      104887.32     -12867846      -12762959      -12762622       0              0              0              48667958       4.3136391    
      9400   1196.1181      198.00695      205.49258     -7.513653      -9.1230207     -2.7001475     -10.717791      4.3135645      299.95407      104855.09     -12867884      -12763029      -12763258       0              0              0              48668800       4.3135645    
      9500   1196.1832      198.01382      205.48821     -81.734517     -110.74006     -76.636675     -57.826811      4.3132715      299.79754      104800.37     -12867903      -12763102      -12765585       0              0              0              48672105       4.3132715    
      9600   1196.1058      198.01686      205.48543     -15.746683     -17.647804     -46.043737      16.451491      4.3135429      300.12397      104914.48     -12867944      -12763030      -12763508       0              0              0              48669043       4.3135429    
      9700   1196.088       198.0111       205.48704      14.468529      14.234192      7.690839       21.480557      4.3136989      300.15267      104924.52     -12867964      -12763040      -12762600       0              0              0              48667282       4.3136989    
      9800   1196.0631      198.01352      205.48929      15.245999      11.500091      19.377408      14.860497      4.3136886      300.05489      104890.33     -12867932      -12763042      -12762579       0              0              0              48667399       4.3136886    
      9900   1196.0065      198.01553      205.49523      8.4008579      9.987282       35.543909     -20.328618      4.3137244      300.05278      104889.6      -12868026      -12763137      -12762881       0              0              0              48666995       4.3137244    
     10000   1196.0224      198.02581      205.49927     -68.410019     -29.670312     -66.797624     -108.76212      4.313358       300.12619      104915.26     -12867924      -12763009      -12765087       0              0              0              48671129       4.313358     
     10100   1196.0292      198.02421      205.48808     -13.869677     -9.0841543     -14.491712     -18.033164      4.3136034      300.21978      104947.98     -12868004      -12763056      -12763478       0              0              0              48668360       4.3136034    
     10200   1195.9744      198.03166      205.48486      7.4724199      1.1748007      8.3925559      12.849903      4.3137063      299.84101      104815.57     -12868012      -12763197      -12762970       0              0              0              48667199       4.3137063    
     10300   1195.9833      198.03176      205.47567      56.140525      31.808018      52.694312      83.919246      4.3138649      299.89537      104834.57     -12867950      -12763115      -12761410       0              0              0              48665411       4.3138649    
     10400   1195.9431      198.03981      205.47605      39.107636      40.236451      5.5181132      71.568345      4.3138266      299.88012      104829.24     -12867960      -12763130      -12761943       0              0              0              48665843       4.3138266    
     10500   1195.9234      198.04073      205.48897     -17.756577     -11.136907     -21.092609     -21.040214      4.3136064      299.9909       104867.97     -12868042      -12763174      -12763713       0              0              0              48668327       4.3136064    
     10600   1195.9535      198.03524      205.49031     -18.914962     -18.94209      -10.755924     -27.046873      4.3135892      299.79015      104797.79     -12868007      -12763210      -12763784       0              0              0              48668520       4.3135892    
     10700   1195.9599      198.0302       205.49088     -4.0457163     -4.0484929      16.103087     -24.191743      4.3136642      300.01201      104875.35     -12868021      -12763146      -12763269       0              0              0              48667675       4.3136642    
     10800   1195.8236      198.04285      205.48405      88.423752      114.05267      68.5073        82.711288      4.3140236      300.03766      104884.31     -12868010      -12763125      -12760439       0              0              0              48663620       4.3140236    
     10900   1195.8623      198.05052      205.48388      23.53496       24.692302      14.181042      31.731537      4.3137205      300.14761      104922.75     -12867948      -12763025      -12762310       0              0              0              48667039       4.3137205    
     11000   1195.9175      198.04449      205.4836      -2.6771933     -11.577601     -2.0744943      5.6205153      4.3136584      299.96218      104857.92     -12868024      -12763166      -12763247       0              0              0              48667739       4.3136584    
     11100   1195.9396      198.04881      205.48683     -40.776094     -55.369614     -36.262879     -30.695789      4.313417       299.96154      104857.7      -12867918      -12763060      -12764299       0              0              0              48670463       4.313417     
     11200   1195.8104      198.06276      205.49882     -80.867004     -48.810369     -99.488205     -94.302437      4.3133276      299.96219      104857.93     -12868019      -12763162      -12765618       0              0              0              48671473       4.3133276    
     11300   1195.8311      198.05225      205.48795      9.3869101      20.046356      8.4988575     -0.38448321     4.3137098      300.12515      104914.89     -12868050      -12763136      -12762850       0              0              0              48667160       4.3137098    
     11400   1195.8843      198.0403       205.48966      18.171941      16.743488      25.909105      11.863231      4.3137422      299.99064      104867.87     -12868063      -12763195      -12762643       0              0              0              48666794       4.3137422    
     11500   1195.9012      198.041        205.48851      19.527892      12.117104      27.630763      18.835809      4.3136906      299.8921       104833.43     -12867944      -12763111      -12762518       0              0              0              48667377       4.3136906    
     11600   1195.9111      198.05799      205.48567     -68.85197      -57.142704     -108.10333     -41.309874      4.3133444      300.05018      104888.69     -12867996      -12763107      -12765199       0              0              0              48671282       4.3133444    
     11700   1195.9572      198.04113      205.48776     -30.32805      -32.627399     -41.387834     -16.968916      4.3135012      300.12487      104914.8      -12868006      -12763091      -12764012       0              0              0              48669514       4.3135012    
     11800   1195.9564      198.03404      205.48688     -3.4782408     -10.775795     -0.93044573     1.2715188      4.3136772      299.91742      104842.28     -12868097      -12763255      -12763360       0              0              0              48667528       4.3136772    
     11900   1195.9393      198.03415      205.48554      32.612346      26.962526      41.792977      29.081534      4.3137647      300.17704      104933.03     -12868018      -12763085      -12762094       0              0              0              48666540       4.3137647    
     12000   1195.8095      198.03461      205.49131      88.45619       137.17289      81.369779      46.825899      4.3141017      299.96427      104858.66     -12868105      -12763246      -12760560       0              0              0              48662739       4.3141017    
     12100   1195.9231      198.03492      205.49357     -6.9892207      7.6312612     -6.8134925     -21.785431      4.3136377      299.85749      104821.33     -12868062      -12763241      -12763453       0              0              0              48667973       4.3136377    
     12200   1195.9823      198.0268       205.49174     -16.92529      -20.437978     -10.854826     -19.483066      4.3136393      300.08614      104901.26     -12868138      -12763236      -12763750       0              0              0              48667956       4.3136393    
     12300   1195.9965      198.02855      205.48993     -20.668119     -31.445457     -20.147325     -10.411576      4.3135879      300.14393      104921.46     -12868099      -12763178      -12763806       0              0              0              48668536       4.3135879    
     12400   1195.9547      198.03816      205.47438      46.868095      44.839953     -4.6574592      100.42179      4.3138561      299.9987       104870.69     -12868033      -12763163      -12761739       0              0              0              48665510       4.3138561    
     12500   1195.9785      198.02709      205.48218      38.561923      37.511065      26.345708      51.828996      4.3138473      300.07315      104896.72     -12868093      -12763196      -12762025       0              0              0              48665609       4.3138473    
     12600   1195.9671      198.02788      205.49045      7.7801644      3.921121       13.780449      5.6389232      4.3136976      300.06922      104895.34     -12868063      -12763168      -12762932       0              0              0              48667298       4.3136976    
     12700   1195.936       198.03295      205.49513     -22.593732     -19.375619     -9.4959147     -38.909662      4.3136013      300.08256      104900.01     -12868107      -12763207      -12763894       0              0              0              48668384       4.3136013    
     12800   1195.9516      198.03702      205.50466     -99.813669     -52.245664     -105.73744     -141.4579       4.3132563      299.97083      104860.95     -12868046      -12763185      -12766218       0              0              0              48672277       4.3132563    
     12900   1195.9507      198.02946      205.49295     -4.7816823      3.6176989     -10.124875     -7.8378704      4.3136698      300.11819      104912.46     -12868099      -12763186      -12763332       0              0              0              48667611       4.3136698    
     13000   1195.9741      198.02812      205.48756      21.203775      12.608877      21.843543      29.158905      4.3137279      300.14424      104921.57     -12868059      -12763138      -12762494       0              0              0              48666956       4.3137279    
     13100   1196.0013      198.02126      205.4847       32.633175      17.8136        30.409325      49.676598      4.3138396      299.94643      104852.42     -12868176      -12763323      -12762332       0              0              0              48665696       4.3138396    
     13200   1195.9695      198.03276      205.4881      -14.786345     -0.99256178    -46.843918      3.4774448      4.313632       299.91422      104841.16     -12868153      -12763312      -12763761       0              0              0              48668038       4.313632     
     13300   1195.9431      198.03843      205.49387     -44.710285     -34.18923      -46.21566      -53.725966      4.3134825      299.91582      104841.72     -12868069      -12763227      -12764585       0              0              0              48669724       4.3134825    
     13400   1195.9428      198.03591      205.4901      -12.540044     -12.886784     -2.1715117     -22.561837      4.3136179      300.11697      104912.04     -12868129      -12763217      -12763598       0              0              0              48668197       4.3136179    
     13500   1195.9362      198.03307      205.48711      14.949445      15.280848      25.653757      3.9137316      4.3137663      299.95533      104855.53     -12868098      -12763243      -12762789       0              0              0              48666523       4.3137663    
     13600   1195.8475      198.04035      205.47607      101.97368      125.0226       68.931899      111.96654      4.3141596      299.91783      104842.42     -12868170      -12763328      -12760231       0              0              0              48662086       4.3141596    
     13700   1195.9129      198.04425      205.47807      16.675398      13.566851      3.7622335      32.69711       4.3137964      299.85566      104820.69     -12868184      -12763364      -12762857       0              0              0              48666183       4.3137964    
     13800   1195.9052      198.04832      205.48017     -12.265356     -23.181845     -10.471767     -3.1424566      4.3136915      300.10876      104909.16     -12868187      -12763278      -12763650       0              0              0              48667366       4.3136915    
     13900   1195.914       198.04831      205.4864      -43.193627     -48.823828     -38.911654     -41.845399      4.3135292      299.88701      104831.65     -12868147      -12763315      -12764627       0              0              0              48669197       4.3135292    
     14000   1195.8568      198.05127      205.48641     -24.676974      13.898824     -33.479796     -54.449949      4.313671       299.89855      104835.68     -12868222      -12763387      -12764136       0              0              0              48667597       4.313671     
     14100   1195.8664      198.04677      205.48263      31.387163      43.478677      35.087868      15.594943      4.3138138      300.07656      104897.91     -12868039      -12763141      -12762188       0              0              0              48665987       4.3138138    
     14200   1195.8238      198.05398      205.47808      20.936683      18.505472      28.544867      15.759711      4.3139058      300.14299      104921.13     -12868272      -12763350      -12762714       0              0              0              48664949       4.3139058    
     14300   1195.9027      198.0514       205.47746     -9.7138176     -20.290906     -5.6025643     -3.2479822      4.3136903      299.82403      104809.63     -12868173      -12763363      -12763658       0              0              0              48667380       4.3136903    
     14400   1195.9362      198.06649      205.47419     -96.851008     -94.36074      -137.24752     -58.944762      4.3133097      300.3263       104985.21     -12868246      -12763261      -12766203       0              0              0              48671674       4.3133097    
     14500   1195.8785      198.05963      205.47603     -24.443174     -24.417293     -36.223809     -12.688419      4.3136285      299.72137      104773.75     -12868107      -12763333      -12764076       0              0              0              48668077       4.3136285    
     14600   1195.8486      198.05414      205.47621      16.26593       10.274426      21.518868      17.004496      4.3138524      300.14311      104921.17     -12868244      -12763323      -12762828       0              0              0              48665551       4.3138524    
     14700   1195.8528      198.04501      205.47809      55.125519      55.308851      70.932155      39.13555       4.3139963      300.20479      104942.74     -12868171      -12763228      -12761554       0              0              0              48663928       4.3139963    
     14800   1195.861       198.04609      205.4814       33.421258      72.100214      33.835857     -5.6722992      4.3138738      300.07177      104896.23     -12868155      -12763259      -12762244       0              0              0              48665309       4.3138738    
     14900   1195.9023      198.05293      205.47878     -26.107572     -16.718145     -27.723891     -33.880679      4.3136306      300.00895      104874.27     -12868179      -12763304      -12764097       0              0              0              48668054       4.3136306    
     15000   1195.9181      198.04955      205.47825     -18.554236     -25.951493     -16.031285     -13.67993       4.3136587      300.19033      104937.68     -12868167      -12763229      -12763793       0              0              0              48667737       4.3136587    
     15100   1195.9967      198.03951      205.47306     -2.4785036     -25.289166     -5.1883059      23.041962      4.3137028      300.09387      104903.96     -12868186      -12763282      -12763357       0              0              0              48667239       4.3137028    
     15200   1195.9095      198.0389       205.46801      81.901002      83.5251        46.710816      115.46709      4.3141365      300.0493       104888.38     -12868309      -12763420      -12760933       0              0              0              48662346       4.3141365    
     15300   1195.8966      198.04376      205.48086      25.358365      32.177321      21.014933      22.882842      4.3138072      300.16694      104929.51     -12868131      -12763201      -12762431       0              0              0              48666061       4.3138072    
     15400   1195.9642      198.03012      205.48684     -8.4485694     -7.8860343      3.2865268     -20.746201      4.3137349      299.63224      104742.59     -12868182      -12763439      -12763696       0              0              0              48666876       4.3137349    
     15500   1196.0854      198.01268      205.49501     -61.34796      -59.121652     -34.339594     -90.582635      4.3135067      299.80293      104802.26     -12868239      -12763436      -12765300       0              0              0              48669451       4.3135067    
     15600   1196.023       198.02462      205.49077     -45.809609     -25.918187     -57.034213     -54.476428      4.3135604      299.92077      104843.45     -12868218      -12763375      -12764767       0              0              0              48668846       4.3135604    
     15700   1196.0112      198.02712      205.47722      18.506974      18.259241      5.7515888      31.510093      4.3138328      299.91983      104843.12     -12868262      -12763419      -12762857       0              0              0              48665772       4.3138328    
     15800   1196.051       198.01586      205.48086      25.624844      12.934942      23.194644      40.744945      4.3138584      299.96654      104859.45     -12868294      -12763434      -12762656       0              0              0              48665483       4.3138584    
     15900   1196.1105      198.00723      205.48026      20.543011     -1.143269       27.031843      35.740458      4.3138441      299.81322      104805.86     -12868240      -12763434      -12762810       0              0              0              48665645       4.3138441    
     16000   1196.0252      198.02098      205.49887     -59.340402     -37.598377     -61.843796     -78.579033      4.313462       299.80698      104803.67     -12868203      -12763400      -12765202       0              0              0              48669956       4.313462     
     16100   1196.0182      198.0198       205.49425     -26.282014     -11.317635     -26.34134      -41.187065      4.3136099      300.07175      104896.23     -12868237      -12763340      -12764139       0              0              0              48668288       4.3136099    
     16200   1196.0669      198.00934      205.4906       6.4374897      7.10859        14.789627     -2.5857478      4.3137387      300.01659      104876.95     -12868184      -12763307      -12763112       0              0              0              48666834       4.3137387    
     16300   1196.1144      197.9934       205.48367      77.464135      53.987566      91.986471      86.418367      4.3140598      299.82862      104811.24     -12868286      -12763475      -12761122       0              0              0              48663212       4.3140598    
     16400   1196.0744      198.00632      205.48447      40.863224      37.240133      18.839311      66.510227      4.3139061      300.14056      104920.28     -12868222      -12763301      -12762060       0              0              0              48664945       4.3139061    
     16500   1196.08        198.00982      205.49174     -12.116097     -10.36195      -24.384797     -1.6015439      4.3136571      300.20057      104941.26     -12868248      -12763307      -12763675       0              0              0              48667755       4.3136571    
     16600   1196.1584      197.99993      205.49334     -36.210789     -42.276399     -31.244874     -35.111094      4.3135559      300.00472      104872.8      -12868321      -12763448      -12764548       0              0              0              48668896       4.3135559    
     16700   1196.1336      197.99606      205.50157     -27.975164     -34.909835      5.0164464     -54.032104      4.313557       299.89692      104835.11     -12868142      -12763307      -12764156       0              0              0              48668883       4.313557     
     16800   1195.9666      198.00937      205.49806      45.425501      63.771539      48.183194      24.321771      4.3139428      300.08096      104899.45     -12868339      -12763439      -12762059       0              0              0              48664531       4.3139428    
     16900   1196.0205      198.01025      205.49505      27.07316       35.978629      22.211221      23.029631      4.3137926      300.13981      104920.02     -12868197      -12763277      -12762455       0              0              0              48666226       4.3137926    
     17000   1196.1464      197.99728      205.48915      3.5316173     -7.3997757      7.0709828      10.923645      4.313745       300.00666      104873.48     -12868341      -12763468      -12763361       0              0              0              48666762       4.313745     
     17100   1196.1559      198.01252      205.49082     -84.898512     -125.98876     -77.053152     -51.653626      4.3133439      299.94011      104850.21     -12868244      -12763394      -12765973       0              0              0              48671288       4.3133439    
     17200   1195.9815      198.03243      205.49014     -34.806375     -35.660263     -49.200682     -19.558181      4.3135534      300.25927      104961.78     -12868270      -12763308      -12764365       0              0              0              48668925       4.3135534    
     17300   1196.0255      198.02065      205.48649      6.9115819      13.454913     -0.48764847     7.7674812      4.3137278      300.07157      104896.16     -12868248      -12763351      -12763141       0              0              0              48666957       4.3137278    
     17400   1196.0715      198.00398      205.48859      43.514787      44.889636      55.382089      30.272636      4.3138808      299.93865      104849.7      -12868240      -12763390      -12762069       0              0              0              48665230       4.3138808    
     17500   1195.9975      198.00723      205.49191      52.627571      47.582769      94.564201      15.735742      4.3140073      299.8811       104829.58     -12868331      -12763501      -12761903       0              0              0              48663804       4.3140073    
     17600   1195.9682      198.03053      205.49086     -21.716648     -11.972592     -23.000902     -30.17645       4.3136273      300.17537      104932.45     -12868296      -12763363      -12764023       0              0              0              48668091       4.3136273    
     17700   1196.0638      198.02076      205.4845      -23.878763     -19.442204     -34.848426     -17.34566       4.313629       300.28551      104970.95     -12868307      -12763336      -12764061       0              0              0              48668071       4.313629     
     17800   1196.0572      198.02311      205.48051     -13.6502       -32.02493      -21.687946      12.762277      4.3136854      299.83229      104812.52     -12868293      -12763480      -12763895       0              0              0              48667436       4.3136854    
     17900   1195.9769      198.0233       205.4774       69.144334      24.884177      81.41239       101.13644      4.3140363      300.15126      104924.02     -12868345      -12763421      -12761321       0              0              0              48663477       4.3140363    
     18000   1195.9606      198.02612      205.4841       32.61061       38.319833      30.622882      28.889114      4.3138928      300.17042      104930.72     -12868251      -12763321      -12762330       0              0              0              48665095       4.3138928    
     18100   1196.045       198.01663      205.48537      1.3756999      16.417174     -1.2288718     -11.061202      4.3137685      299.98216      104864.91     -12868360      -12763495      -12763453       0              0              0              48666498       4.3137685    
     18200   1196.0037      198.02427      205.48999     -41.723343     -32.797873     -24.322187     -68.049969      4.3136542      299.85229      104819.51     -12868394      -12763574      -12764842       0              0              0              48667787       4.3136542    
     18300   1196.0043      198.0331       205.48793     -60.236504     -88.203689     -26.07425      -66.431573      4.3135031      299.85322      104819.84     -12868314      -12763495      -12765324       0              0              0              48669493       4.3135031    
     18400   1195.9858      198.03469      205.47618      8.8123216      5.6283162     -3.1725632      23.981212      4.3137814      300.06737      104894.7      -12868304      -12763410      -12763142       0              0              0              48666352       4.3137814    
     18500   1195.9998      198.02916      205.47414      21.954869      23.741995      5.295313       36.827298      4.3138944      299.97366      104861.94     -12868379      -12763517      -12762850       0              0              0              48665077       4.3138944    
     18600   1195.9726      198.03045      205.47648      33.991639      23.817505      33.097638      45.059773      4.3139154      300.22546      104949.96     -12868352      -12763402      -12762370       0              0              0              48664841       4.3139154    
     18700   1196.0113      198.0271       205.48634     -35.293245     -49.012681      5.9796425     -62.846695      4.3136417      300.16285      104928.08     -12868391      -12763463      -12764535       0              0              0              48667928       4.3136417    
     18800   1196.0146      198.02532      205.48735     -28.333941     -16.697167     -20.87152      -47.433134      4.3136473      299.83368      104813.01     -12868311      -12763498      -12764359       0              0              0              48667865       4.3136473    
     18900   1195.9551      198.03364      205.48471     -8.6666485      4.9712778     -14.08248      -16.888743      4.3137361      299.94442      104851.72     -12868341      -12763489      -12763753       0              0              0              48666863       4.3137361    
     19000   1195.9198      198.03664      205.47557      38.524549      27.547497      34.917009      53.109142      4.3139899      299.77326      104791.89     -12868449      -12763657      -12762487       0              0              0              48664000       4.3139899    
     19100   1196.03        198.02325      205.4715       63.563003      16.929149      68.127542      105.63232      4.3139696      300.21179      104945.18     -12868277      -12763332      -12761402       0              0              0              48664229       4.3139696    
     19200   1196.0233      198.02159      205.48263      2.7679656     -1.6419872     -5.1686867      15.114571      4.3137962      300.12347      104914.31     -12868383      -12763468      -12763384       0              0              0              48666185       4.3137962    
     19300   1195.9658      198.03179      205.4871      -24.704517     -13.761047     -33.687667     -26.664836      4.3136876      299.96558      104859.12     -12868411      -12763552      -12764302       0              0              0              48667411       4.3136876    
     19400   1195.975       198.0256       205.49738     -47.538201     -30.412602     -30.165807     -82.036192      4.3135734      300.02896      104881.27     -12868363      -12763482      -12764926       0              0              0              48668699       4.3135734    
     19500   1195.9822      198.01152      205.4953       24.697921      18.973549      62.766914     -7.6467005      4.313898       299.70045      104766.43     -12868391      -12763624      -12762874       0              0              0              48665037       4.313898     
     19600   1195.9535      198.02207      205.48832      25.322482      26.965449      26.665631      22.336365      4.313918       299.84877      104818.28     -12868418      -12763600      -12762831       0              0              0              48664811       4.313918     
     19700   1195.9566      198.02882      205.48569      13.235133      18.821642     -2.764441       23.648198      4.3138151      300.22214      104948.8      -12868415      -12763466      -12763064       0              0              0              48665972       4.3138151    
     19800   1196.0268      198.03386      205.48098     -47.239312     -61.752737     -73.390811     -6.5743874      4.3135511      299.75216      104784.51     -12868376      -12763592      -12765027       0              0              0              48668951       4.3135511    
     19900   1196.0433      198.02538      205.48785     -56.287646     -85.650161     -42.317321     -40.895456      4.3135322      299.93754      104849.31     -12868389      -12763539      -12765249       0              0              0              48669164       4.3135322    
     20000   1195.996       198.02179      205.49235     -5.3552239     -4.4422343     -1.831104      -9.7923334      4.3136863      299.94371      104851.47     -12868307      -12763455      -12763618       0              0              0              48667425       4.3136863    
Loop time of 18961.9 on 8 procs for 20000 steps with 2704396 atoms

Performance: 0.091 ns/day, 263.360 hours/ns, 1.055 timesteps/s
99.2% CPU use with 8 MPI tasks x no OpenMP threads

MPI task timing breakdown:
Section |  min time  |  avg time  |  max time  |%varavg| %total
---------------------------------------------------------------
Pair    | 15734      | 15858      | 15956      |  57.4 | 83.63
Neigh   | 143.23     | 147.67     | 150.88     |  21.6 |  0.78
Comm    | 600.09     | 716.18     | 852.58     | 297.7 |  3.78
Output  | 3.0799     | 3.1178     | 3.2812     |   3.5 |  0.02
Modify  | 1961.2     | 1980.3     | 2030.3     |  48.5 | 10.44
Other   |            | 256.3      |            |       |  1.35

Nlocal:         338050 ave      339146 max      337025 min
Histogram: 1 2 0 0 1 1 0 0 2 1
Nghost:         106856 ave      107869 max      104644 min
Histogram: 1 0 0 0 0 1 1 2 1 2
Neighs:    2.44979e+07 ave 2.46999e+07 max 2.43358e+07 min
Histogram: 3 0 0 1 0 0 2 0 1 1

Total # of neighbors = 1.9598281e+08
Ave neighs/atom = 72.468238
Neighbor list builds = 218
Dangerous builds = 3
write_data      7.lmp
System init for write_data ...
Total wall time: 6:59:38
